LAMMPS FENE chain data file
11 atoms
10 bonds
1 atom types
1 bond types
-129.956646435 129.956646435 xlo xhi
-129.956646435 129.956646435 ylo yhi
-12.9956646435 12.9956646435 zlo zhi

Masses

1 1.0

Atoms

1    1 1 -8.2269 -4.2303 -4.53436  0 0 0 
2    1 1 -9.5351 -8.8233 -1.75131  0 0 -1
3    1 1 -8.1405 -11.2573 -5.46367  0 0 -2
4    1 1 -4.6694 -10.262 -5.17722   0 0 -3
5    1 1 -8.2042 -4.0728 -10.4719  0 0 -4
6    1 1 -1.7816 -1.6181 -7.12849  0 0 -3
7    1 1  1.0000 -9.0341 -9.52884  0 0 -4
8    1 1 -3.5977 -3.2645 -3.08598  0 0 -3
9    1 1 -6.2041 -5.3413 0.846637  0 0 -4
10   1 1 -3.8106 -8.4188 3.94845   0 -1 -4
11   1 1 -3.9006 -10.4662 1.37375   0 -1 -5

Bonds

1 1 1 2
2 1 2 3
3 1 3 4
4 1 4 5
5 1 5 6
6 1 6 7
7 1 7 8
8 1 8 9
9 1 9 10
10 1 10 11

