LAMMPS FENE chain data file
11 atoms
10 bonds
1 atom types
1 bond types
-129.872397092 129.872397092 xlo xhi 
-129.872397092 129.872397092 ylo yhi 
-12.9872397092 12.9872397092 zlo zhi 

Masses

1 1.0 

Atoms


1     1 1  -100.493 124.921 -9.29745    1  1 1
2     1 1  -98.1669 114.712 -8.82214    1  1 1
3     1 1  -105.113 111.118 -6.80884    1  1 1
4     1 1  -109.612 107.256 -4.3163     1  1 1
5     1 1  -111.706 103.445 -8.99713    1  1 1
6     1 1  -108.48 97.9038 -8.30553     1  1 1
7     1 1  -116.487 93.5039 -3.52066    1  1 1
8     1 1  -115.789 85.6462 -4.13369    1  1 1
9     1 1  -115.317 78.9794 -4.13692    1  1 1
10    1 1  -122.011 80.6452 -1.35721    1  1 1
11    1 1  -126.976 80.9327 0.208503    1  1 1

Bonds

1 1 1 2 
2 1 2 3 
3 1 3 4 
4 1 4 5 
5 1 5 6 
6 1 6 7 
7 1 7 8 
8 1 8 9 
9 1 9 10
10 1 10 11

